/*--------------------------------*- C++ -*----------------------------------*\
| =========                 |                                                 |
| \\      /  F ield         | foam-extend: Open Source CFD                    |
|  \\    /   O peration     | Version:     4.0                                |
|   \\  /    A nd           | Web:         http://www.foam-extend.org         |
|    \\/     M anipulation  |                                                 |
\*---------------------------------------------------------------------------*/
FoamFile
{
    version     2.0;
    format      ascii;
    class       volScalarField;
    location    "0.0015";
    object      alpha1;
}
// * * * * * * * * * * * * * * * * * * * * * * * * * * * * * * * * * * * * * //

dimensions      [0 0 0 0 0 0 0];

internalField   nonuniform List<scalar> 
60000
(
1
1
1
1
1
1
1
1
1
1
1
1
1
1
1
1
1
1
1
1
0.99999996
0.99999974
0.99999879
0.99999568
0.99998762
0.99997082
0.99994066
0.99989165
0.99981634
0.99969979
0.99955871
0.99946514
0.99944018
0.99943125
0.99941988
0.99940619
0.99940674
0.99937908
0.99944103
0.99970492
0.99970835
0.99968721
0.99968106
0.99956802
0.99954653
0.99949887
0.99753379
0.98240732
0.94246813
0.88037537
0.80200332
0.71805509
0.63509499
0.55977093
0.49235475
0.43404516
0.38312587
0.33936483
0.30123447
0.26825901
0.23936599
0.21416352
0.19197553
0.1724637
0.15515641
0.13978397
0.12603367
0.1137123
0.10261421
0.092602021
0.083536988
0.075319656
0.067853216
0.061063983
0.054881938
0.04925116
0.044119146
0.03944245
0.035180306
0.031298245
0.027763578
0.024548512
0.021626076
0.018973655
0.016568425
0.014391977
0.012424298
0.010650931
0.0090546738
0.0076251483
0.0063450516
0.0052032675
0.0041869858
0.0032884599
0.0024976615
0.0018035821
0.0011872723
0.00062583886
0.00024708667
6.147607e-05
6.4417851e-06
1.3534055e-07
2.2185519e-10
1.1305808e-14
1.0316144e-20
5.8218917e-23
1.4967523e-24
2.4206177e-26
2.881802e-28
2.6319026e-30
1.8599105e-32
1.0234097e-34
4.410409e-37
1.4910651e-39
3.9316966e-42
7.9543579e-45
1.1954921e-47
1.2562221e-50
8.139963e-54
2.2848801e-57
1.6935674e-55
4.0389985e-52
5.032461e-49
4.0938469e-46
2.3863984e-43
1.0455407e-40
3.5341836e-38
9.342403e-36
1.938835e-33
3.1398096e-31
3.8977704e-29
3.6020094e-27
2.3976172e-25
1.1329033e-23
3.9019272e-22
5.084641e-17
5.5800014e-12
1.3141079e-08
1.6213605e-06
2.7032464e-05
0.00014515749
0.00043147315
0.00091683748
0.0015028883
0.0021441214
0.0028795529
0.0037116473
0.0046581531
0.0057230344
0.0069200949
0.0082572747
0.0097488656
0.011406298
0.013245273
0.015280245
0.017528993
0.020009154
0.022741307
0.025746786
0.029049859
0.032676448
0.036655736
0.041019646
0.045804058
0.051049099
0.056800007
0.063108541
0.070033351
0.077643191
0.086016382
0.09524715
0.1054433
0.11673815
0.12928451
0.14327667
0.15893606
0.17654909
0.19642808
0.21896458
0.2445458
0.27372292
0.30713111
0.34567604
0.39011752
0.44147398
0.50039616
0.56784207
0.64328911
0.72528153
0.80791355
0.88358998
0.94342251
0.98168214
0.99656422
0.99933078
0.99934717
0.99934718
0.9994203
0.99942031
0.99942031
0.99932433
0.99937619
0.99935914
0.99939144
0.99937845
0.99937338
0.99936051
0.99935531
0.99937114
0.99958577
0.99972407
0.99982668
0.99989695
0.99994391
0.99997286
0.99998876
0.99999617
0.99999894
0.99999977
0.99999997
1
1
1
1
1
1
1
1
1
1
1
1
1
1
1
1
1
1
1
1
1
1
1
1
1
1
1
1
1
1
1
1
1
1
1
1
1
1
1
1
1
1
1
1
1
1
1
1
1
1
1
1
1
1
1
1
1
1
1
1
1
1
1
1
1
1
1
1
1
1
1
1
1
1
1
1
1
1
1
1
1
1
1
1
1
1
1
1
1
1
1
1
1
1
1
1
1
1
1
1
1
1
1
1
1
1
1
1
1
1
1
1
1
1
1
1
1
1
1
1
1
1
1
1
1
1
1
1
1
1
1
1
1
1
1
1
1
1
1
1
1
1
1
1
1
1
1
1
1
1
1
1
1
1
1
1
1
1
1
1
1
1
1
1
1
1
1
1
1
1
1
1
1
1
1
1
1
1
1
1
1
1
1
1
1
1
1
1
1
1
1
1
1
1
1
1
1
1
1
1
1
1
1
1
1
1
1
1
1
1
1
1
1
1
1
1
1
1
1
1
1
1
1
1
1
1
1
1
1
1
1
1
1
1
1
1
1
1
1
1
1
1
1
1
1
1
1
1
1
1
1
1
1
1
1
1
1
1
1
1
1
1
1
1
1
1
1
1
1
1
1
1
1
1
1
1
1
1
1
1
1
1
1
1
1
1
1
1
1
1
1
1
1
1
1
1
1
1
1
1
1
1
1
1
1
1
1
1
1
1
1
1
1
1
1
1
1
1
1
1
1
1
1
1
1
1
1
1
1
1
1
1
1
1
1
1
1
1
1
1
1
1
1
1
1
1
1
1
1
1
1
1
1
1
1
1
1
1
1
1
1
1
1
1
1
1
1
1
1
1
1
1
1
1
1
1
1
1
1
1
1
1
1
1
1
1
1
1
1
1
1
1
1
1
1
1
1
1
1
1
1
0.99999999
0.99999996
0.99999989
0.99999974
0.99999952
0.9999992
0.99999872
0.99999805
0.99999608
0.99997961
0.99996352
0.99996499
0.99997636
0.99999174
0.99999747
0.99999689
0.99999527
0.99998308
0.99995598
0.99970061
0.99916646
0.99667712
0.98282033
0.92996657
0.82451316
0.64835419
0.46823953
0.31257853
0.20063729
0.12256983
0.075095951
0.045344414
0.027812684
0.016761911
0.010105967
0.0059059675
0.0033648755
0.0018038827
0.00090283145
0.00042517329
0.00019736811
9.4330283e-05
4.7481322e-05
2.5127771e-05
1.3868299e-05
7.8942638e-06
4.5962702e-06
2.7159079e-06
1.6197751e-06
9.6992185e-07
5.8060505e-07
3.4567927e-07
2.0347004e-07
1.1734481e-07
6.54175e-08
3.4466249e-08
1.6487572e-08
6.7894348e-09
2.7374924e-09
1.9578023e-09
1.9832774e-09
2.463636e-09
5.8082442e-09
2.7395546e-08
1.6077504e-07
6.7726018e-07
1.4734605e-06
2.1731055e-06
2.0879257e-06
1.5539055e-06
7.7099139e-07
3.9923708e-07
4.5857886e-07
1.2819393e-06
5.9249694e-06
2.2453358e-05
4.8952076e-05
6.2387786e-05
4.0629493e-05
7.8977651e-06
3.0891251e-07
1.4027894e-09
4.1000883e-13
4.2876816e-18
1.5048184e-21
1.5142619e-22
1.0430821e-23
5.0789544e-25
1.838013e-26
5.0901897e-28
1.0934951e-29
1.8322042e-31
2.3939087e-33
2.4221731e-35
1.8666799e-37
1.0613611e-39
4.1933326e-42
1.0164646e-44
1.0690998e-47
3.5616148e-46
2.2857351e-43
7.6026419e-41
1.6401704e-38
2.5192597e-36
2.8886401e-34
2.5359822e-32
1.7255907e-30
9.126713e-29
3.734734e-27
1.1711828e-25
2.7936753e-24
5.082917e-23
6.794718e-22
1.8461322e-20
4.6030071e-15
6.091073e-11
4.0567797e-08
2.462325e-06
2.3942389e-05
5.77979e-05
5.6172046e-05
3.3772924e-05
1.2179246e-05
2.9696369e-06
6.0028706e-07
1.291391e-07
3.652275e-08
1.6449294e-08
9.8034515e-09
5.4599579e-09
3.2090961e-09
2.4862801e-09
2.3603814e-09
2.3757162e-09
2.3776773e-09
2.2773249e-09
2.1588229e-09
2.1138377e-09
2.1135488e-09
2.5143121e-09
5.0239319e-09
1.2529781e-08
2.908701e-08
6.0887471e-08
1.1747647e-07
2.1340012e-07
3.7039812e-07
6.1998923e-07
1.0067485e-06
1.5945198e-06
2.4814552e-06
3.8422115e-06
6.0453314e-06
1.0002108e-05
1.8235207e-05
3.821259e-05
9.1584876e-05
0.00023325963
0.00056727138
0.0012177576
0.00229239
0.0039810764
0.0066907314
0.011136882
0.018372021
0.030078649
0.048986876
0.079947849
0.1302573
0.20981262
0.32469205
0.47746316
0.65601228
0.82271629
0.92870117
0.98028111
0.99585797
0.99905024
0.99977779
0.99995741
0.99998891
0.99999472
0.99999652
0.99999677
0.99998278
0.99995739
0.9999453
0.99996093
0.99998712
0.99999132
0.99999355
0.99999562
0.99999734
0.99999856
0.99999932
0.99999973
0.99999992
0.99999998
1
1
1
1
1
1
1
1
1
1
1
1
1
1
1
1
1
1
1
1
1
1
1
1
1
1
1
1
1
1
1
1
1
1
1
1
1
1
1
1
1
1
1
1
1
1
1
1
1
1
1
1
1
1
1
1
1
1
1
1
1
1
1
1
1
1
1
1
1
1
1
1
1
1
1
1
1
1
1
1
1
1
1
1
1
1
1
1
1
1
1
1
1
1
1
1
1
1
1
1
1
1
1
1
1
1
1
1
1
1
1
1
1
1
1
1
1
1
1
1
1
1
1
1
1
1
1
1
1
1
1
1
1
1
1
1
1
1
1
1
1
1
1
1
1
1
1
1
1
1
1
1
1
1
1
1
1
1
1
1
1
1
1
1
1
1
1
1
1
1
1
1
1
1
1
1
1
1
1
1
1
1
1
1
1
1
1
1
1
1
1
1
1
1
1
1
1
1
1
1
1
1
1
1
1
1
1
1
1
1
1
1
1
1
1
1
1
1
1
1
1
1
1
1
1
1
1
1
1
1
1
1
1
1
1
1
1
1
1
1
1
1
1
1
1
1
1
1
1
1
1
1
1
1
1
1
1
1
1
1
1
1
1
1
1
1
1
1
1
1
1
1
1
1
1
1
1
1
1
1
1
1
1
1
1
1
1
1
1
1
1
1
1
1
1
1
1
1
1
1
1
1
1
1
1
1
1
1
1
1
1
1
1
1
1
1
1
1
1
1
1
1
1
1
1
1
1
1
1
1
1
1
1
1
1
1
1
1
1
1
1
1
1
1
1
1
1
1
1
1
1
1
1
1
1
1
1
1
1
1
1
1
1
1
1
1
1
1
1
1
1
1
1
1
1
1
1
1
1
1
1
1
1
1
1
1
1
1
1
1
1
1
1
1
1
1
1
1
1
1
1
1
1
1
1
1
1
1
1
1
1
0.99999998
0.99999994
0.99999995
0.99999995
0.99999988
0.99999799
0.99997805
0.99981465
0.99896955
0.99560125
0.98257287
0.93786694
0.79942287
0.57574751
0.34001008
0.16687456
0.077170363
0.035018796
0.016203454
0.0079729281
0.0043134253
0.0024856085
0.0014352734
0.00084094562
0.00047103969
0.0002573404
0.00012804312
5.7162742e-05
2.1169582e-05
6.0189668e-06
1.175068e-06
1.367325e-07
7.8433702e-09
2.2647134e-10
7.4827584e-11
7.717406e-11
8.4915971e-11
9.8010729e-11
1.1422961e-10
1.3100313e-10
1.4670253e-10
1.6089723e-10
1.7402911e-10
1.8726116e-10
2.0256411e-10
2.2313495e-10
2.5396143e-10
3.0097994e-10
3.6332822e-10
4.2061715e-10
4.5383616e-10
4.8121544e-10
5.9134456e-10
1.5743253e-09
1.2065702e-08
1.5770081e-07
2.0644007e-06
3.977776e-06
3.9778561e-06
2.7858543e-06
7.1939894e-07
8.3051254e-08
7.5177373e-08
1.3983453e-07
1.0432209e-06
7.5099425e-06
2.8159721e-05
4.3331192e-05
3.1218784e-05
1.5297829e-05
3.5143906e-06
1.6744423e-07
9.4542622e-10
3.8755151e-13
7.2523347e-18
4.0922722e-21
6.4285586e-22
7.3974674e-23
6.2991628e-24
4.0948666e-25
2.0658215e-26
8.1436141e-28
2.5138831e-29
6.0633701e-31
1.1331608e-32
1.6122473e-34
1.6904291e-36
1.2297013e-38
5.4802664e-41
1.0622872e-43
2.4679178e-42
8.6518025e-40
1.5659217e-37
1.8339259e-35
1.5265667e-33
9.4762615e-32
4.5032926e-30
1.6608262e-28
4.7785553e-27
1.0715397e-25
1.8636327e-24
2.507961e-23
2.6348546e-22
2.1138841e-21
4.1068775e-20
5.4502171e-15
4.7371047e-11
2.4204316e-08
1.1845683e-06
9.3576421e-06
2.326029e-05
3.8780926e-05
3.7549314e-05
1.9676326e-05
3.3741855e-06
5.0917311e-07
1.5259423e-07
1.4640557e-07
2.4273213e-07
1.990715e-07
3.6465741e-08
4.2341907e-09
1.3043898e-09
1.2751607e-09
1.2751408e-09
1.2570929e-09
1.0410078e-09
7.2969656e-10
5.0258803e-10
3.6457526e-10
2.6884657e-10
1.9817551e-10
1.5156711e-10
1.2524255e-10
1.1341112e-10
1.1026093e-10
1.1147171e-10
1.3083607e-10
1.6976386e-10
2.1791573e-10
2.6718398e-10
3.0863819e-10
3.3680489e-10
3.5146332e-10
3.5707731e-10
3.5996039e-10
4.3106407e-10
8.4439552e-09
2.3365688e-07
2.4502712e-06
1.2440803e-05
3.9260559e-05
9.343491e-05
0.00018846096
0.00034578248
0.00060286589
0.0010255263
0.0017291325
0.0029191407
0.0050466741
0.0091743223
0.018510907
0.039231605
0.084211686
0.17702197
0.34869387
0.57746698
0.79611841
0.93080552
0.980935
0.99503519
0.99884473
0.99977784
0.99997054
0.99999725
0.99999983
0.99999991
0.99999991
0.99999996
0.99999999
0.99999999
0.99999999
0.99999999
0.99999999
1
1
1
1
1
1
1
1
1
1
1
1
1
1
1
1
1
1
1
1
1
1
1
1
1
1
1
1
1
1
1
1
1
1
1
1
1
1
1
1
1
1
1
1
1
1
1
1
1
1
1
1
1
1
1
1
1
1
1
1
1
1
1
1
1
1
1
1
1
1
1
1
1
1
1
1
1
1
1
1
1
1
1
1
1
1
1
1
1
1
1
1
1
1
1
1
1
1
1
1
1
1
1
1
1
1
1
1
1
1
1
1
1
1
1
1
1
1
1
1
1
1
1
1
1
1
1
1
1
1
1
1
1
1
1
1
1
1
1
1
1
1
1
1
1
1
1
1
1
1
1
1
1
1
1
1
1
1
1
1
1
1
1
1
1
1
1
1
1
1
1
1
1
1
1
1
1
1
1
1
1
1
1
1
1
1
1
1
1
1
1
1
1
1
1
1
1
1
1
1
1
1
1
1
1
1
1
1
1
1
1
1
1
1
1
1
1
1
1
1
1
1
1
1
1
1
1
1
1
1
1
1
1
1
1
1
1
1
1
1
1
1
1
1
1
1
1
1
1
1
1
1
1
1
1
1
1
1
1
1
1
1
1
1
1
1
1
1
1
1
1
1
1
1
1
1
1
1
1
1
1
1
1
1
1
1
1
1
1
1
1
1
1
1
1
1
1
1
1
1
1
1
1
1
1
1
1
1
1
1
1
1
1
1
1
1
1
1
1
1
1
1
1
1
1
1
1
1
1
1
1
1
1
1
1
1
1
1
1
1
1
1
1
1
1
1
1
1
1
1
1
1
1
1
1
1
1
1
1
1
1
1
1
1
1
1
1
1
1
1
1
1
1
1
1
1
1
1
1
1
1
1
1
1
1
1
1
1
1
1
1
1
1
1
1
1
1
1
1
1
1
1
1
1
1
1
1
1
1
1
1
1
1
1
1
1
1
1
0.99999998
0.99999883
0.99997598
0.99975122
0.99845847
0.99178861
0.96758363
0.88693181
0.69001378
0.38044359
0.1662336
0.053086889
0.015484939
0.0048360769
0.0019337286
0.00081802826
0.00045504162
0.00025869693
0.00015535299
8.7573541e-05
4.8563054e-05
2.5152378e-05
1.1829611e-05
4.813958e-06
1.519761e-06
3.1349936e-07
3.2640773e-08
1.2610944e-09
2.083107e-11
1.0519939e-11
1.2077298e-11
1.6550603e-11
2.4163908e-11
3.4285029e-11
4.4950422e-11
5.4614126e-11
6.2239895e-11
6.7248132e-11
7.0095797e-11
7.2056368e-11
7.408632e-11
7.7248537e-11
8.3483666e-11
9.630776e-11
1.2173275e-10
1.695336e-10
2.5070399e-10
3.5826579e-10
4.563118e-10
5.5618646e-10
9.0255385e-10
3.5693869e-09
2.8682754e-08
2.363249e-07
1.8555341e-06
3.6835309e-06
2.2419014e-06
5.4614669e-07
6.8589586e-08
6.4163977e-08
1.12637e-07
4.0526201e-07
1.6284422e-06
5.6507917e-06
1.0528824e-05
1.0848753e-05
7.7667788e-06
3.1940776e-06
6.5113479e-07
3.3382445e-08
2.2790415e-10
1.2614804e-13
3.5086301e-18
8.1509067e-21
1.5635897e-21
2.2526838e-22
2.5205665e-23
2.233097e-24
1.5711674e-25
8.7703517e-27
3.875191e-28
1.3481884e-29
3.6536525e-31
7.5646891e-33
1.1567098e-34
1.2286709e-36
8.0020327e-39
2.2748537e-41
4.2300736e-40
1.0185886e-37
1.2639853e-35
1.014988e-33
5.80055e-32
2.4786071e-30
8.142985e-29
2.0898272e-27
4.2252682e-26
6.7519759e-25
8.52523e-24
8.5077396e-23
6.8221035e-22
4.6313441e-21
4.1067292e-20
2.0161603e-15
1.2804563e-11
5.1620656e-09
2.1991339e-07
1.7397559e-06
5.3438149e-06
9.9209187e-06
1.1143076e-05
8.412404e-06
3.4181255e-06
1.0154537e-06
5.1900849e-07
8.0189779e-07
1.4446845e-06
1.0303154e-06
1.6454367e-07
1.6482088e-08
2.4901958e-09
1.2769908e-09
1.2811986e-09
1.3092412e-09
1.2744409e-09
9.0303542e-10
5.1613014e-10
3.2068857e-10
2.0389716e-10
1.2359419e-10
7.3596257e-11
4.5739144e-11
3.1666954e-11
2.5573928e-11
2.3608505e-11
2.3343347e-11
2.6737055e-11
4.0639548e-11
6.2809553e-11
8.842483e-11
1.1223811e-10
1.2923358e-10
1.3728142e-10
1.3861538e-10
1.2868844e-10
1.1656876e-10
1.1394246e-10
7.4925766e-10
2.3281046e-08
2.6575041e-07
1.3952002e-06
4.4894194e-06
1.088706e-05
2.2484826e-05
4.219468e-05
7.4952453e-05
0.00012809274
0.00021618099
0.00035728704
0.00060043166
0.0011102322
0.0024773099
0.0062574579
0.0182763
0.059744943
0.17133634
0.38626094
0.67668474
0.87935365
0.96439435
0.99090126
0.99814039
0.99969075
0.99996519
0.99999778
0.99999994
1
1
1
1
1
1
1
1
1
1
1
1
1
1
1
1
1
1
1
1
1
1
1
1
1
1
1
1
1
1
1
1
1
1
1
1
1
1
1
1
1
1
1
1
1
1
1
1
1
1
1
1
1
1
1
1
1
1
1
1
1
1
1
1
1
1
1
1
1
1
1
1
1
1
1
1
1
1
1
1
1
1
1
1
1
1
1
1
1
1
1
1
1
1
1
1
1
1
1
1
1
1
1
1
1
1
1
1
1
1
1
1
1
1
1
1
1
1
1
1
1
1
1
1
1
1
1
1
1
1
1
1
1
1
1
1
1
1
1
1
1
1
1
1
1
1
1
1
1
1
1
1
1
1
1
1
1
1
1
1
1
1
1
1
1
1
1
1
1
1
1
1
1
1
1
1
1
1
1
1
1
1
1
1
1
1
1
1
1
1
1
1
1
1
1
1
1
1
1
1
1
1
1
1
1
1
1
1
1
1
1
1
1
1
1
1
1
1
1
1
1
1
1
1
1
1
1
1
1
1
1
1
1
1
1
1
1
1
1
1
1
1
1
1
1
1
1
1
1
1
1
1
1
1
1
1
1
1
1
1
1
1
1
1
1
1
1
1
1
1
1
1
1
1
1
1
1
1
1
1
1
1
1
1
1
1
1
1
1
1
1
1
1
1
1
1
1
1
1
1
1
1
1
1
1
1
1
1
1
1
1
1
1
1
1
1
1
1
1
1
1
1
1
1
1
1
1
1
1
1
1
1
1
1
1
1
1
1
1
1
1
1
1
1
1
1
1
1
1
1
1
1
1
1
1
1
1
1
1
1
1
1
1
1
1
1
1
1
1
1
1
1
1
1
1
1
1
1
1
1
1
1
1
1
1
1
1
1
1
1
1
1
1
1
1
1
1
1
1
1
1
1
1
1
1
1
1
1
1
1
1
1
1
1
1
1
1
1
1
1
1
1
1
0.99999994
0.99999493
0.99988236
0.99874834
0.99186063
0.96383148
0.86388957
0.64000994
0.29704736
0.093349953
0.020714526
0.0035542488
0.00045973788
0.00018196828
6.6122999e-05
3.2108283e-05
1.6566276e-05
9.1433969e-06
4.8255599e-06
2.4352548e-06
1.1350857e-06
4.7450213e-07
1.6138604e-07
3.7505699e-08
4.5973688e-09
2.1424337e-10
3.9315726e-12
1.6143552e-12
1.7996719e-12
2.5128908e-12
3.9839774e-12
6.7250363e-12
1.053826e-11
1.4964824e-11
1.9741994e-11
2.108828e-11
2.0757601e-11
1.9830929e-11
1.8416413e-11
1.6869995e-11
1.6147646e-11
1.6205526e-11
1.6929648e-11
1.948966e-11
2.583977e-11
3.9442465e-11
6.7478879e-11
1.2504029e-10
2.3224146e-10
3.8154165e-10
5.4123772e-10
8.6989875e-10
2.8673525e-09
1.9968991e-08
1.102989e-07
1.8231927e-07
1.6398091e-07
1.0187535e-07
3.9190951e-08
3.8475118e-08
7.8917671e-08
3.0228291e-07
1.2392767e-06
1.9054359e-06
1.8198685e-06
1.8394047e-06
1.6441085e-06
9.4945066e-07
2.99255e-07
4.4845948e-08
2.0216274e-09
1.4409715e-11
9.2930968e-15
5.0243418e-19
1.9769805e-20
3.6969406e-21
5.6279687e-22
7.1603351e-23
7.487763e-24
6.3623759e-25
4.3661255e-26
2.4056738e-27
1.0551738e-28
3.6349957e-30
9.625162e-32
1.8905996e-33
2.5879218e-35
2.1773803e-37
8.0333848e-40
1.2827627e-38
2.4005986e-36
2.3138545e-34
1.4456704e-32
6.4495051e-31
2.1621097e-29
5.6116551e-28
1.1485662e-26
1.8757656e-25
2.4637527e-24
2.6172307e-23
2.2566119e-22
1.5848493e-21
9.2823151e-21
5.0681526e-20
1.8980333e-16
8.5017013e-13
3.0897616e-10
1.35713e-08
1.370947e-07
5.7943384e-07
1.3104845e-06
1.7265139e-06
1.5770834e-06
9.6702739e-07
5.2845456e-07
6.278584e-07
1.5356155e-06
1.6303734e-06
1.5097928e-06
3.1795958e-07
2.9591294e-08
4.110275e-09
1.4721018e-09
1.0889444e-09
8.9071043e-10
5.9854965e-10
3.6389415e-10
2.2550866e-10
1.3859287e-10
8.2480247e-11
4.7905092e-11
2.7265263e-11
1.5368891e-11
8.8948972e-12
5.6468215e-12
4.2220959e-12
3.739146e-12
3.6503273e-12
3.9882177e-12
6.8582818e-12
1.3640239e-11
2.3662927e-11
3.5679227e-11
4.7329064e-11
5.5380448e-11
5.8303301e-11
5.5483091e-11
4.3813079e-11
3.9452615e-11
3.8816108e-11
1.6055002e-10
4.0868523e-09
4.0475601e-08
1.8463095e-07
5.2010406e-07
1.1173968e-06
2.1031131e-06
3.7656958e-06
6.6733256e-06
1.1677595e-05
2.0051247e-05
3.3734496e-05
6.060504e-05
0.00011985714
0.00030795939
0.0008296215
0.0047048775
0.023643989
0.09800314
0.29503661
0.62109139
0.85621816
0.95983522
0.9907269
0.99844591
0.9998235
0.99998918
0.99999975
1
1
1
1
1
1
1
1
1
1
1
1
1
1
1
1
1
1
1
1
1
1
1
1
1
1
1
1
1
1
1
1
1
1
1
1
1
1
1
1
1
1
1
1
1
1
1
1
1
1
1
1
1
1
1
1
1
1
1
1
1
1
1
1
1
1
1
1
1
1
1
1
1
1
1
1
1
1
1
1
1
1
1
1
1
1
1
1
1
1
1
1
1
1
1
1
1
1
1
1
1
1
1
1
1
1
1
1
1
1
1
1
1
1
1
1
1
1
1
1
1
1
1
1
1
1
1
1
1
1
1
1
1
1
1
1
1
1
1
1
1
1
1
1
1
1
1
1
1
1
1
1
1
1
1
1
1
1
1
1
1
1
1
1
1
1
1
1
1
1
1
1
1
1
1
1
1
1
1
1
1
1
1
1
1
1
1
1
1
1
1
1
1
1
1
1
1
1
1
1
1
1
1
1
1
1
1
1
1
1
1
1
1
1
1
1
1
1
1
1
1
1
1
1
1
1
1
1
1
1
1
1
1
1
1
1
1
1
1
1
1
1
1
1
1
1
1
1
1
1
1
1
1
1
1
1
1
1
1
1
1
1
1
1
1
1
1
1
1
1
1
1
1
1
1
1
1
1
1
1
1
1
1
1
1
1
1
1
1
1
1
1
1
1
1
1
1
1
1
1
1
1
1
1
1
1
1
1
1
1
1
1
1
1
1
1
1
1
1
1
1
1
1
1
1
1
1
1
1
1
1
1
1
1
1
1
1
1
1
1
1
1
1
1
1
1
1
1
1
1
1
1
1
1
1
1
1
1
1
1
1
1
1
1
1
1
1
1
1
1
1
1
1
1
1
1
1
1
1
1
1
1
1
1
1
1
1
1
1
1
1
1
1
1
1
1
1
1
1
1
1
1
1
1
1
1
1
1
1
1
1
1
1
1
1
1
1
1
1
1
1
0.99999991
0.99998638
0.99961999
0.99560936
0.97194357
0.88515718
0.64902767
0.30490252
0.07426535
0.012464525
0.0012432972
7.2498034e-05
3.7690534e-06
4.2868711e-07
1.4167166e-07
6.8305464e-08
4.1292071e-08
2.6468087e-08
1.6361316e-08
8.7226086e-09
3.655782e-09
1.0343606e-09
1.5613871e-10
9.1820564e-12
2.7802137e-13
1.5831677e-13
1.7131066e-13
2.2696673e-13
3.7516727e-13
7.1473127e-13
1.4232495e-12
2.0913482e-12
2.0961208e-12
1.972929e-12
1.7431787e-12
1.4763004e-12
1.2096182e-12
9.5659162e-13
7.569763e-13
6.7625703e-13
6.7442032e-13
7.0192346e-13
8.2411269e-13
1.1723872e-12
2.0047782e-12
3.8457796e-12
7.7461768e-12
1.5641626e-11
3.1064479e-11
6.2006244e-11
1.2822487e-10
2.6287044e-10
4.6947111e-10
6.9416654e-10
9.1574229e-10
1.2035679e-09
1.711787e-09
2.4800139e-09
3.9048525e-09
9.5877854e-09
3.4668227e-08
9.158267e-08
1.2803987e-07
1.4048656e-07
1.6431087e-07
1.7774396e-07
1.6324583e-07
1.0807355e-07
4.4785261e-08
9.7130717e-09
9.4636631e-10
3.0759888e-11
1.7816559e-13
1.2967552e-16
3.3168495e-19
6.9332645e-20
1.2174101e-20
1.8491463e-21
2.4245434e-22
2.6976461e-23
2.5080597e-24
1.9254093e-25
1.207305e-26
6.1070173e-28
2.4513813e-29
7.623762e-31
1.7695024e-32
2.8754009e-34
2.8827192e-36
1.2743076e-38
1.8345889e-37
2.8951027e-35
2.3536016e-33
1.2438263e-31
4.7158352e-30
1.3525191e-28
3.0301683e-27
5.4164182e-26
7.8422971e-25
9.3087731e-24
9.1592805e-23
7.5621268e-22
5.3352869e-21
3.3335964e-20
1.9572257e-19
9.2699034e-18
1.0061258e-14
4.1717706e-12
2.3721941e-10
3.5547379e-09
2.2561164e-08
7.0136161e-08
1.2437944e-07
1.4732767e-07
1.4427948e-07
1.2508352e-07
9.6017384e-08
8.1090413e-08
8.1721794e-08
5.7406518e-08
2.801063e-08
1.0935541e-08
3.8020173e-09
1.5141522e-09
7.1059544e-10
3.575384e-10
1.9009924e-10
1.0545578e-10
5.8910216e-11
3.2245969e-11
1.7214199e-11
9.0119142e-12
4.6509448e-12
2.3744438e-12
1.2054318e-12
6.1950667e-13
3.3892587e-13
2.1563849e-13
1.6962956e-13
1.5734484e-13
1.5594178e-13
1.9462423e-13
4.7612938e-13
1.3140553e-12
2.9989947e-12
5.717336e-12
9.2041676e-12
1.2437228e-11
1.4164215e-11
1.4237386e-11
1.0345093e-11
7.6104519e-12
7.3427219e-12
4.186697e-11
8.7979395e-10
6.6060901e-09
2.2600872e-08
4.6866027e-08
7.180166e-08
9.3246233e-08
1.1357751e-07
1.4259552e-07
2.0690385e-07
3.6413922e-07
7.1552456e-07
1.633813e-06
4.4326453e-06
1.8597575e-05
0.00015757391
0.0017939615
0.013875197
0.077304326
0.2892181
0.63353082
0.87511776
0.96874218
0.99459967
0.99943144
0.99997027
0.99999959
1
1
1
1
1
1
1
1
1
1
1
1
1
1
1
1
1
1
1
1
1
1
1
1
1
1
1
1
1
1
1
1
1
1
1
1
1
1
1
1
1
1
1
1
1
1
1
1
1
1
1
1
1
1
1
1
1
1
1
1
1
1
1
1
1
1
1
1
1
1
1
1
1
1
1
1
1
1
1
1
1
1
1
1
1
1
1
1
1
1
1
1
1
1
1
1
1
1
1
1
1
1
1
1
1
1
1
1
1
1
1
1
1
1
1
1
1
1
1
1
1
1
1
1
1
1
1
1
1
1
1
1
1
1
1
1
1
1
1
1
1
1
1
1
1
1
1
1
1
1
1
1
1
1
1
1
1
1
1
1
1
1
1
1
1
1
1
1
1
1
1
1
1
1
1
1
1
1
1
1
1
1
1
1
1
1
1
1
1
1
1
1
1
1
1
1
1
1
1
1
1
1
1
1
1
1
1
1
1
1
1
1
1
1
1
1
1
1
1
1
1
1
1
1
1
1
1
1
1
1
1
1
1
1
1
1
1
1
1
1
1
1
1
1
1
1
1
1
1
1
1
1
1
1
1
1
1
1
1
1
1
1
1
1
1
1
1
1
1
1
1
1
1
1
1
1
1
1
1
1
1
1
1
1
1
1
1
1
1
1
1
1
1
1
1
1
1
1
1
1
1
1
1
1
1
1
1
1
1
1
1
1
1
1
1
1
1
1
1
1
1
1
1
1
1
1
1
1
1
1
1
1
1
1
1
1
1
1
1
1
1
1
1
1
1
1
1
1
1
1
1
1
1
1
1
1
1
1
1
1
1
1
1
1
1
1
1
1
1
1
1
1
1
1
1
1
1
1
1
1
1
1
1
1
1
1
1
1
1
1
1
1
1
1
1
1
1
1
1
1
1
1
1
1
1
1
1
1
1
1
1
1
1
1
1
1
1
1
1
0.99999989
0.99997483
0.99901769
0.98812642
0.92530999
0.73278974
0.36728877
0.096498766
0.012587118
0.00089369292
3.7446274e-05
6.9104515e-07
7.2542944e-09
1.1014194e-10
1.2831544e-11
8.7210662e-12
6.8074252e-12
5.2404571e-12
3.4410012e-12
1.6413027e-12
4.5301839e-13
5.5723321e-14
6.8802691e-15
6.0362687e-15
7.0648309e-15
1.0502779e-14
2.0985347e-14
4.4532878e-14
8.3129254e-14
1.2748895e-13
1.7367199e-13
1.9670275e-13
1.9363366e-13
1.8406643e-13
1.6751091e-13
1.4521335e-13
1.1902276e-13
9.0897777e-14
6.4265239e-14
4.7106651e-14
4.3502747e-14
4.4584863e-14
5.0297327e-14
6.9952883e-14
1.2074083e-13
2.3416971e-13
4.6808295e-13
9.2909124e-13
1.8142934e-12
3.4824596e-12
6.5513445e-12
1.1987679e-11
2.1116884e-11
3.5489104e-11
5.7092882e-11
9.1399796e-11
1.5478357e-10
2.7501795e-10
4.9100231e-10
8.5840519e-10
1.4418216e-09
2.2835877e-09
3.4610506e-09
5.0247644e-09
6.5550009e-09
7.2063473e-09
6.7809335e-09
4.8464664e-09
2.2632522e-09
6.2848326e-10
8.6498904e-11
4.904892e-12
8.9310298e-14
3.3050448e-16
5.8311292e-18
9.1154512e-19
1.5048701e-19
2.4561036e-20
3.67205e-21
4.8495015e-22
5.5425616e-23
5.3946796e-24
4.4086964e-25
2.9841705e-26
1.6482596e-27
7.2918742e-29
2.5181717e-30
6.5290461e-32
1.1908207e-33
1.3454477e-35
6.7389112e-38
8.7112956e-37
1.2272482e-34
8.9094334e-33
4.2174788e-31
1.4392328e-29
3.7397686e-28
7.6551017e-27
1.2633688e-25
1.7106259e-24
1.9285249e-23
1.8366366e-22
1.5024365e-21
1.0780962e-20
6.9367316e-20
4.0243082e-19
2.1028619e-18
2.6680056e-17
9.4624403e-15
9.2396471e-13
2.4194284e-11
2.4950841e-10
1.1503492e-09
2.8534446e-09
4.5968582e-09
5.6510196e-09
5.8948396e-09
5.5905543e-09
4.616284e-09
3.2823401e-09
2.0287445e-09
1.1309551e-09
6.2037693e-10
3.5608296e-10
2.0578284e-10
1.1687311e-10
6.5215823e-11
3.5762111e-11
1.9151972e-11
9.9394502e-12
4.978648e-12
2.4092725e-12
1.1338242e-12
5.2464445e-13
2.4169837e-13
1.1235206e-13
5.3672683e-14
2.7226728e-14
1.5643434e-14
1.1058043e-14
9.4540781e-15
8.8669146e-15
8.8325402e-15
1.0624502e-14
2.2145934e-14
5.8111121e-14
1.3906613e-13
2.9677653e-13
5.6597666e-13
9.4166242e-13
1.3269212e-12
1.5727418e-12
1.6300291e-12
1.2512004e-12
7.4548493e-13
6.5396286e-13
4.7083499e-12
7.6766669e-11
4.0548913e-10
9.6067802e-10
1.3851154e-09
1.521962e-09
1.4388038e-09
9.8651071e-10
7.0428076e-10
6.1471674e-10
6.3601479e-10
1.9014298e-09
1.0211553e-08
1.3336332e-07
3.2254398e-06
7.5867681e-05
0.0012456982
0.013651279
0.091976413
0.34850429
0.715491
0.91774556
0.9855892
0.99854839
0.99994484
0.99999952
1
1
1
1
1
1
1
1
1
1
1
1
1
1
1
1
1
1
1
1
1
1
1
1
1
1
1
1
1
1
1
1
1
1
1
1
1
1
1
1
1
1
1
1
1
1
1
1
1
1
1
1
1
1
1
1
1
1
1
1
1
1
1
1
1
1
1
1
1
1
1
1
1
1
1
1
1
1
1
1
1
1
1
1
1
1
1
1
1
1
1
1
1
1
1
1
1
1
1
1
1
1
1
1
1
1
1
1
1
1
1
1
1
1
1
1
1
1
1
1
1
1
1
1
1
1
1
1
1
1
1
1
1
1
1
1
1
1
1
1
1
1
1
1
1
1
1
1
1
1
1
1
1
1
1
1
1
1
1
1
1
1
1
1
1
1
1
1
1
1
1
1
1
1
1
1
1
1
1
1
1
1
1
1
1
1
1
1
1
1
1
1
1
1
1
1
1
1
1
1
1
1
1
1
1
1
1
1
1
1
1
1
1
1
1
1
1
1
1
1
1
1
1
1
1
1
1
1
1
1
1
1
1
1
1
1
1
1
1
1
1
1
1
1
1
1
1
1
1
1
1
1
1
1
1
1
1
1
1
1
1
1
1
1
1
1
1
1
1
1
1
1
1
1
1
1
1
1
1
1
1
1
1
1
1
1
1
1
1
1
1
1
1
1
1
1
1
1
1
1
1
1
1
1
1
1
1
1
1
1
1
1
1
1
1
1
1
1
1
1
1
1
1
1
1
1
1
1
1
1
1
1
1
1
1
1
1
1
1
1
1
1
1
1
1
1
1
1
1
1
1
1
1
1
1
1
1
1
1
1
1
1
1
1
1
1
1
1
1
1
1
1
1
1
1
1
1
1
1
1
1
1
1
1
1
1
1
1
1
1
1
1
1
1
1
1
1
1
1
1
1
1
1
1
1
1
1
1
1
1
1
1
1
1
1
1
1
0.99999986
0.99995923
0.99792887
0.97272937
0.84304265
0.51120211
0.15762388
0.023061731
0.0015322918
4.0405474e-05
4.3881746e-07
2.2857635e-09
6.4075709e-12
3.1739605e-14
2.9964252e-15
1.5066047e-15
1.132159e-15
8.4329117e-16
5.95616e-16
4.6343616e-16
4.6394562e-16
6.044425e-16
9.0051001e-16
1.3682107e-15
2.014769e-15
2.8804258e-15
4.0776209e-15
5.9366031e-15
8.7484511e-15
1.2579328e-14
1.7530292e-14
2.3418087e-14
2.4887806e-14
2.3800198e-14
2.1620105e-14
1.8167931e-14
1.3967026e-14
9.7778344e-15
6.1912761e-15
3.667945e-15
2.5063978e-15
2.2717828e-15
2.3731124e-15
2.8529861e-15
3.9373193e-15
6.5033906e-15
1.2710416e-14
2.6290064e-14
5.4461816e-14
1.107935e-13
2.1911123e-13
4.1760372e-13
7.621488e-13
1.3301019e-12
2.2262052e-12
3.5865835e-12
5.5727708e-12
8.3560739e-12
1.2102302e-11
1.6981718e-11
2.3287824e-11
3.1770105e-11
4.3931694e-11
6.0794263e-11
7.9626826e-11
9.2582323e-11
9.2961271e-11
7.3631459e-11
3.8164326e-11
1.194148e-11
2.049347e-12
1.59251e-13
4.4999194e-15
4.9759342e-17
6.159825e-18
2.1799712e-18
5.017712e-19
1.0101274e-19
1.8120679e-20
2.8727121e-21
3.9807357e-22
4.7629084e-23
4.8606353e-24
4.1801864e-25
2.991493e-26
1.7554458e-27
8.2893654e-29
3.0684236e-30
8.5589869e-32
1.6847927e-33
2.0607849e-35
1.1228822e-37
1.3370647e-36
1.7512839e-34
1.180714e-32
5.1980267e-31
1.6541046e-29
4.0222319e-28
7.7376512e-27
1.2057842e-25
1.549044e-24
1.6640122e-23
1.5137854e-22
1.1810325e-21
8.0102643e-21
4.7902676e-20
2.5452319e-19
1.1773892e-18
4.3372825e-18
1.2312696e-17
5.8869206e-16
3.1866814e-14
6.0850994e-13
4.6145771e-12
1.7125535e-11
3.8192469e-11
5.9921577e-11
7.4157674e-11
7.8706015e-11
7.6304894e-11
6.6853968e-11
5.2694859e-11
3.7635737e-11
2.4674646e-11
1.4987476e-11
8.4411831e-12
4.4552619e-12
2.2568561e-12
1.1254659e-12
5.621821e-13
2.8283038e-13
1.4267438e-13
7.1566867e-14
3.5524418e-14
1.7491186e-14
8.6527718e-15
4.5010456e-15
2.6754849e-15
1.7647032e-15
1.2777858e-15
1.0282689e-15
9.1721075e-16
9.1957761e-16
1.0352371e-15
1.2850128e-15
1.8716834e-15
3.4364467e-15
6.7293309e-15
1.3056796e-14
2.3845799e-14
3.9488408e-14
5.7805635e-14
7.3862106e-14
8.3021174e-14
8.5341348e-14
6.7754009e-14
3.5697092e-14
2.0353794e-14
1.6719301e-14
4.4190424e-14
8.4684815e-13
5.4049699e-12
1.3250989e-11
1.8139972e-11
1.8917982e-11
1.4961584e-11
8.1374724e-12
3.9697546e-12
2.0644498e-12
1.4743497e-12
7.1141056e-12
4.376611e-10
3.4018331e-08
2.0490184e-06
7.9720759e-05
0.0017934456
0.022531588
0.14527984
0.48938729
0.82885119
0.96726579
0.99697283
0.99991131
0.99999943
1
1
1
1
1
1
1
1
1
1
1
1
1
1
1
1
1
1
1
1
1
1
1
1
1
1
1
1
1
1
1
1
1
1
1
1
1
1
1
1
1
1
1
1
1
1
1
1
1
1
1
1
1
1
1
1
1
1
1
1
1
1
1
1
1
1
1
1
1
1
1
1
1
1
1
1
1
1
1
1
1
1
1
1
1
1
1
1
1
1
1
1
1
1
1
1
1
1
1
1
1
1
1
1
1
1
1
1
1
1
1
1
1
1
1
1
1
1
1
1
1
1
1
1
1
1
1
1
1
1
1
1
1
1
1
1
1
1
1
1
1
1
1
1
1
1
1
1
1
1
1
1
1
1
1
1
1
1
1
1
1
1
1
1
1
1
1
1
1
1
1
1
1
1
1
1
1
1
1
1
1
1
1
1
1
1
1
1
1
1
1
1
1
1
1
1
1
1
1
1
1
1
1
1
1
1
1
1
1
1
1
1
1
1
1
1
1
1
1
1
1
1
1
1
1
1
1
1
1
1
1
1
1
1
1
1
1
1
1
1
1
1
1
1
1
1
1
1
1
1
1
1
1
1
1
1
1
1
1
1
1
1
1
1
1
1
1
1
1
1
1
1
1
1
1
1
1
1
1
1
1
1
1
1
1
1
1
1
1
1
1
1
1
1
1
1
1
1
1
1
1
1
1
1
1
1
1
1
1
1
1
1
1
1
1
1
1
1
1
1
1
1
1
1
1
1
1
1
1
1
1
1
1
1
1
1
1
1
1
1
1
1
1
1
1
1
1
1
1
1
1
1
1
1
1
1
1
1
1
1
1
1
1
1
1
1
1
1
1
1
1
1
1
1
1
1
1
1
1
1
1
1
1
1
1
1
1
1
1
1
1
1
1
1
1
1
1
1
1
1
1
1
1
1
1
1
1
1
1
1
1
1
1
1
1
0.99999981
0.99993565
0.99629333
0.94597411
0.72353606
0.28868751
0.058486968
0.0041872515
0.0001651998
1.2505981e-06
2.1853884e-09
1.7574538e-12
3.0802759e-15
2.2999197e-16
8.701581e-17
6.5758642e-17
4.9469076e-17
3.7059663e-17
3.1905846e-17
3.9142787e-17
6.6740895e-17
1.2602683e-16
2.3043419e-16
3.9297461e-16
6.2227079e-16
9.1782912e-16
1.2659289e-15
1.6399316e-15
2.0347983e-15
2.4725483e-15
2.9420868e-15
3.2416995e-15
3.2397635e-15
2.990281e-15
2.5994737e-15
2.1536033e-15
1.710993e-15
1.3192819e-15
9.8171366e-16
6.9471629e-16
4.8293432e-16
3.4691737e-16
2.7605809e-16
2.5901647e-16
2.8871043e-16
3.6378964e-16
4.8861598e-16
6.7284144e-16
9.3087309e-16
1.2995286e-15
1.9041254e-15
2.9071391e-15
4.6449316e-15
7.6557268e-15
1.2388089e-14
1.9396682e-14
2.9226499e-14
4.1974314e-14
5.6876001e-14
7.2703799e-14
8.9274212e-14
1.0854553e-13
1.3464732e-13
1.7301694e-13
2.2549002e-13
2.8139391e-13
3.1444412e-13
2.8655407e-13
1.7307738e-13
6.0812695e-14
1.189398e-14
1.1883463e-15
7.4138164e-17
1.125627e-17
4.2297207e-18
2.596759e-18
8.954422e-19
2.3014747e-19
4.9890508e-20
9.403101e-21
1.5474402e-21
2.2122359e-22
2.7243368e-23
2.8625512e-24
2.5398564e-25
1.8806792e-26
1.1455925e-27
5.6335191e-29
2.1782178e-30
6.3638768e-32
1.3153443e-33
1.6938243e-35
9.7632009e-38
1.088809e-36
1.3649507e-34
8.7898468e-33
3.6982631e-31
1.1265841e-29
2.6286245e-28
4.8657888e-27
7.3184735e-26
9.1015279e-25
9.4879696e-24
8.3866546e-23
6.3506345e-22
4.1583545e-21
2.3727443e-20
1.1825054e-19
5.0653705e-19
1.7351848e-18
3.5699867e-18
5.9744714e-18
2.6301125e-17
2.8249441e-16
3.4293807e-15
2.0729842e-14
6.8202746e-14
1.4246525e-13
2.105245e-13
2.4663154e-13
2.5973109e-13
2.5707088e-13
2.3886539e-13
2.0554911e-13
1.6080597e-13
1.1223569e-13
6.9382017e-14
3.8381318e-14
1.9523528e-14
9.5235752e-15
4.7511422e-15
2.6681422e-15
1.6711393e-15
1.1273182e-15
8.0156767e-16
5.7040149e-16
4.0428833e-16
2.8582093e-16
2.028624e-16
1.4687029e-16
1.1220743e-16
9.6026549e-17
9.8559934e-17
1.2377467e-16
1.8029606e-16
2.8222488e-16
4.4900459e-16
7.0303682e-16
1.0634927e-15
1.5329928e-15
2.166296e-15
2.9574345e-15
3.7820458e-15
4.5389427e-15
5.1105165e-15
5.2997693e-15
4.8578499e-15
3.8897827e-15
3.0175157e-15
2.3328433e-15
1.8078364e-15
1.4563883e-15
1.3176334e-15
3.0865892e-15
3.2620892e-14
1.3694931e-13
2.4407365e-13
2.7285998e-13
2.3126466e-13
1.3110867e-13
6.9029818e-14
4.6103821e-14
4.0832537e-14
4.0960533e-13
1.1070279e-10
2.75728e-08
3.7102181e-06
0.0002146363
0.0043216638
0.052479239
0.27098515
0.7007614
0.93596312
0.99461336
0.99986368
0.9999993
1
1
1
1
1
1
1
1
1
1
1
1
1
1
1
1
1
1
1
1
1
1
1
1
1
1
1
1
1
1
1
1
1
1
1
1
1
1
1
1
1
1
1
1
1
1
1
1
1
1
1
1
1
1
1
1
1
1
1
1
1
1
1
1
1
1
1
1
1
1
1
1
1
1
1
1
1
1
1
1
1
1
1
1
1
1
1
1
1
1
1
1
1
1
1
1
1
1
1
1
1
1
1
1
1
1
1
1
1
1
1
1
1
1
1
1
1
1
1
1
1
1
1
1
1
1
1
1
1
1
1
1
1
1
1
1
1
1
1
1
1
1
1
1
1
1
1
1
1
1
1
1
1
1
1
1
1